LAMMPS (2 Aug 2023 - Update 3)
OMP_NUM_THREADS environment is not set. Defaulting to 1 thread. (src/comm.cpp:98)
  using 1 OpenMP thread(s) per MPI task
Lattice spacing in x,y,z = 1.6795962 1.6795962 1.6795962
Created orthogonal box = (0 0 0) to (33.591924 33.591924 33.591924)
  2 by 2 by 4 MPI processor grid
Created 32000 atoms
  using lattice units in orthogonal box = (0 0 0) to (33.591924 33.591924 33.591924)
  create_atoms CPU = 0.002 seconds
Generated 0 of 0 mixed pair_coeff terms from geometric mixing rule
Neighbor list info ...
  update: every = 20 steps, delay = 0 steps, check = no
  max neighbors/atom: 2000, page size: 100000
  master list distance cutoff = 2.6
  ghost atom cutoff = 2.6
  binsize = 1.3, bins = 26 26 26
  1 neighbor lists, perpetual/occasional/extra = 1 0 0
  (1) pair lj/cut, perpetual
      attributes: half, newton on
      pair build: half/bin/atomonly/newton
      stencil: half/bin/3d
      bin: standard
Setting up Verlet run ...
  Unit style    : lj
  Current step  : 0
  Time step     : 0.005
Per MPI rank memory allocation (min/avg/max) = 2.66 | 2.672 | 2.685 Mbytes
   Step          Temp          E_pair         E_mol          TotEng         Press
         0   1.44          -6.7733681      0             -4.6134356     -5.0197073
     10000   0.60118887    -5.7726319      0             -4.8708768      0.1493339
Loop time of 15.0218 on 16 procs for 10000 steps with 32000 atoms

Performance: 287581.752 tau/day, 665.699 timesteps/s, 21.302 Matom-step/s
80.3% CPU use with 16 MPI tasks x 1 OpenMP threads

MPI task timing breakdown:
Section |  min time  |  avg time  |  max time  |%varavg| %total
---------------------------------------------------------------
Pair    | 6.4049     | 6.5236     | 6.6574     |   3.0 | 43.43
Neigh   | 1.2706     | 1.2847     | 1.295      |   0.6 |  8.55
Comm    | 6.6545     | 6.9543     | 7.113      |   4.4 | 46.29
Output  | 0.00044046 | 0.0005672  | 0.00086671 |   0.0 |  0.00
Modify  | 0.19137    | 0.21858    | 0.35761    |  10.2 |  1.46
Other   |            | 0.04006    |            |       |  0.27

Nlocal:           2000 ave        2033 max        1980 min
Histogram: 3 1 1 5 3 0 1 0 1 1
Nghost:           3552 ave        3586 max        3520 min
Histogram: 2 1 1 2 1 4 2 1 1 1
Neighs:        60422.6 ave       62344 max       59181 min
Histogram: 3 2 1 4 2 1 0 1 0 2

Total # of neighbors = 966762
Ave neighs/atom = 30.211312
Neighbor list builds = 500
Dangerous builds not checked
Total wall time: 0:00:15

 Performance counter stats for 'numactl --interleave=all mpirun -x LD_LIBRARY_PATH -np 16 --host head:8,work1:8 --map-by core --bind-to-core lmp_mpi -in in.lj':

        121,221.19 msec task-clock                #    7.649 CPUs utilized
             8,758      context-switches          #   72.248 /sec
                45      cpu-migrations            #    0.371 /sec
            20,924      page-faults               #  172.610 /sec
   380,624,086,195      cycles                    #    3.140 GHz
    11,204,078,979      stalled-cycles-frontend   #    2.94% frontend cycles idle
   161,576,872,760      stalled-cycles-backend    #   42.45% backend cycles idle
   607,661,536,311      instructions              #    1.60  insn per cycle
                                                  #    0.27  stalled cycles per insn
    84,654,067,659      branches                  #  698.344 M/sec
                 0      branch-misses             #    0.00% of all branches

      15.847128296 seconds time elapsed

      95.993615000 seconds user
      25.096452000 seconds sys

